# vtk DataFile Version 2.0
Unstructured grid consisting of 2 connected hexahedral elements
ASCII
DATASET UNSTRUCTURED_GRID
POINTS 12 double
-0.075	0.215939584	-0.374248066
-0.075	-0.374248066	0.784060416
-0.075	1.374248066	0.215939584
-0.075	0.784060416	1.374248066
1	0	0
1	0	1
1	1	0
1	1	1
2.075	-0.374248066	0.215939584
2.075	0.215939584	1.374248066
2.075	0.784060416	-0.374248066
2.075	1.374248066	0.784060416
CELLS 2 18
8 1 5 4 0 3 7 6 2
8 5 9 8 4 7 11 10 6
CELL_TYPES 2
12
12
POINT_DATA 12
FIELD fieldarrays 1
testval 1 12 double
 0.3
 0.4
 0.5
 0.6
 0.7
 0.8
 0.9
 1.0
 0.9
 0.8
 0.7
 0.6
