# vtk DataFile Version 2.0
Unstructured grid consisting of 2 connected hexahedral elements
ASCII
DATASET UNSTRUCTURED_GRID
POINTS 12 double
-0.025	0.042810368	-0.129267543
-0.025	-0.129267543	0.957189632
-0.025	1.129267543	0.042810368
-0.025	0.957189632	1.129267543
1	0	0
1	0	1
1	1	0
1	1	1
2.025	-0.129267543	0.042810368
2.025	0.042810368	1.129267543
2.025	0.957189632	-0.129267543
2.025	1.129267543	0.957189632
CELLS 2 18
8 1 5 4 0 3 7 6 2
8 5 9 8 4 7 11 10 6
CELL_TYPES 2
12
12
POINT_DATA 12
FIELD fieldarrays 1
testval 1 12 double
 0.1
 0.2
 0.3
 0.4
 0.5
 0.6
 0.7
 0.8
 0.9
 1.0
 0.9
 0.8
