# vtk DataFile Version 2.0
Polydata "MSV" text with embedded location in block*.vtu
ASCII
DATASET POLYDATA
POINTS 16 double
 -0.6 -0.8  0.0
 -0.6 +0.8  0.0
 -0.2 +0.0  0.0
 +0.2 +0.8  0.0
 +0.2 -0.8  0.0
 +0.6 -0.4  0.0
 +1.0 -0.8  0.0
 +1.4 -0.4  0.0
 +0.6 +0.4  0.0
 +1.0 +0.8  0.0
 +1.4 +0.4  0.0
 +1.8 +0.8  0.0
 +1.8  0.0  0.0
 +2.2 -0.8  0.0
 +2.6  0.0  0.0
 +2.6 +0.8  0.0
LINES 3 19
5 0 1 2 3 4
6 5 6 7 8 9 10
5 11 12 13 14 15
POINT_DATA 16
FIELD fieldarrays 2
cellId 1 16 vtkidtype
0 0 0 0 0 0 0 1 0 0 1 1 1 1 1 1
pcoord 3 16 double
 0.2 0.5 0.1
 0.2 0.5 0.9
 0.4 0.5 0.5
 0.6 0.5 0.9
 0.6 0.5 0.1
 0.8 0.5 0.3
 1.0 0.5 0.1
 0.2 0.5 0.3
 0.8 0.5 0.7
 1.0 0.5 0.9
 0.2 0.5 0.7
 0.4 0.5 0.9
 0.4 0.5 0.5
 0.6 0.5 0.1
 0.8 0.5 0.5
 0.8 0.5 0.9 
